<?xml version="1.0"?>
<VTKFile type="PolyData" version="0.1" byte_order="LittleEndian" header_type="UInt64">
  <PolyData>
    <Piece NumberOfPoints="2925" NumberOfVerts="0" NumberOfLines="0" NumberOfStrips="0" NumberOfPolys="5846">
      <PointData Normals="Normals">
        <DataArray type="Float32" Name="Normals" NumberOfComponents="3" format="ascii" RangeMin="0.99999926928" RangeMax="1.0000007378">
          0.87315201759 0.27887201309 0.39979499578 0.90570700169 0.33406299353 0.26095399261
          0.90471202135 0.33392900229 0.26455199718 0.89507299662 0.25073900819 0.36874601245
          0.87935400009 0.27353700995 0.38976100087 0.80727702379 0.21282400191 0.5504630208
          0.85451900959 0.24945500493 0.45559701324 0.85834699869 0.22847099602 0.45939299464
          0.93023902178 0.29510501027 0.21810099483 0.92925900221 0.26824301481 0.25401499867
          0.93436700106 0.34468701482 0.090274997056 0.95748502016 0.26328098774 0.11791999638
          0.94315302372 0.29179799557 0.15910999477 0.92343401909 0.282795012 0.25941699743
          0.92305499315 0.27917701006 0.26462998986 0.85704600811 0.21883900464 0.46645599604
          0.91437298059 0.26305401325 0.3077749908 0.93260097504 0.21709300578 0.28831499815
          0.84146100283 0.23569999635 0.48619800806 0.80359899998 0.1983589977 0.56114399433
          0.94890999794 0.19713200629 0.24639299512 0.92768198252 0.27378299832 0.25386700034
          0.87587398291 0.3101849854 0.3696359992 0.85307002068 0.26033499837 0.45221298933
          0.77049297094 0.19791699946 0.60594499111 0.7781149745 0.17685200274 0.6027110219
          0.77047199011 0.16340500116 0.6161749959 0.78515201807 0.20211499929 0.58539402485
          0.80972701311 0.18114799261 0.55814701319 0.75513100624 0.26305198669 0.60048401356
          0.97574102879 0.16524100304 0.1436150074 0.94357001781 0.30348199606 0.13257099688
          0.99134600163 0.12636199594 0.035567000508 0.93809300661 0.26633900404 0.22146099806
          0.90564602613 0.31622299552 0.28250300884 0.99592798948 0.0784580037 0.044406000525
          0.86074697971 0.28666299582 0.42064100504 0.94911700487 0.30627900362 0.073276996613
          0.95863997936 0.27322399616 0.079732000828 0.94794201851 0.25647699833 0.18874900043
          0.94563001394 0.28757798672 0.1519279927 0.92272800207 0.31529501081 0.22172600031
          0.9294270277 0.30613699555 0.20602500439 0.92293798923 0.27580699325 0.26854500175
          0.90927398205 0.31876501441 0.26759898663 0.80529499054 0.18262000382 0.56404799223
          0.9764379859 0.14848999679 0.15658999979 0.99563002586 0.069508999586 0.062360998243
          0.79773002863 0.21886000037 0.56189602613 0.81937301159 0.19345599413 0.53963202238
          0.77069497108 0.19935500622 0.60521602631 0.82471102476 0.26902800798 0.49746900797
          0.68742901087 0.11107899994 0.71770602465 0.71664297581 0.15837800503 0.67922002077
          0.75130301714 0.15818199515 0.6407200098 0.99282997847 0.093606002629 0.074336998165
          0.9477930069 0.25304201245 0.19405899942 0.93373900652 0.31363099813 0.17253300548
          0.96613502502 0.20914199948 0.15113799274 0.94903999567 0.27231600881 0.15864300728
          0.93060302734 0.28878799081 0.22489799559 0.81299197674 0.37174001336 0.44816699624
          0.87058097124 0.44005098939 0.22009800375 0.85182702541 0.42028999329 0.31264600158
          0.81654000282 0.24796099961 0.52132302523 0.6330729723 0.16978299618 0.75524300337
          0.67637699842 0.2079180032 0.70660102367 0.75509500504 0.23151700199 0.61337697506
          0.71000599861 0.11651200056 0.69448900223 0.62239599228 0.11738499999 0.77385002375
          0.77639901638 0.2316659987 0.58611899614 0.72986197472 0.14419400692 0.66821300983
          0.77718698978 0.25289601088 0.57621502876 0.8104069829 0.16041499376 0.56347799301
          0.90617400408 0.32771098614 0.26730901003 0.94501698017 0.32512998581 0.035114001483
          0.9357740283 0.30660501122 0.17412500083 0.88601499796 0.30145400763 0.35228300095
          0.8135690093 0.27765500546 0.51089400053 0.85941797495 0.30127501488 0.41307899356
          0.94191002846 0.32233399153 -0.094370000064 0.95304697752 0.29853001237 -0.050813000649
          0.95804899931 0.26936200261 -0.097909003496 0.96585601568 0.2460090071 -0.081251002848
          0.95742297173 0.27633801103 0.083534002304 0.94515901804 0.32396000624 -0.041528999805
          0.94158899784 0.32208999991 0.098325997591 0.91907799244 0.31974199414 0.23035000265
          0.93208700418 0.29258701205 0.21355900168 0.92412298918 0.27676799893 0.26342999935
          0.90714198351 0.3163869977 0.27747499943 0.64914697409 0.12643100321 0.75008201599
          0.64085900784 0.2440699935 0.72782498598 0.72923797369 0.24124099314 0.64032399654
          0.58877199888 0.21601499617 0.77890002728 0.75050902367 0.28038701415 0.59843099117
          0.50641298294 0.13352200389 0.85189002752 0.59452199936 0.041136000305 0.80302602053
          0.57519799471 0.090686000884 0.81297200918 0.92344999313 0.35232099891 0.15201899409
          0.92592900991 0.32496699691 0.1924879998 0.82382899523 0.39797800779 0.40363299847
          0.83370697498 0.30458599329 0.460608989 0.77417200804 0.4018419981 0.48906099796
          0.73340499401 0.50501400232 0.45505899191 0.75774902105 0.51760202646 0.39737099409
          0.88417297602 0.43224400282 0.17721100152 0.84220600128 0.48506599665 0.23537099361
          0.86389398575 0.46283000708 0.19868700206 0.8335340023 0.42027801275 0.35859000683
          0.86291801929 0.4415050149 0.24585999548 0.46635100245 0.12307599932 0.87599599361
          0.44545900822 0.10601399839 0.8890029788 0.79384899139 0.2587479949 0.55032098293
          0.77316898108 0.23606200516 0.58862900734 0.66807901859 0.20474000275 0.71536898613
          0.61533802748 0.08092200011 0.78409898281 0.43781799078 0.045942999423 0.89788901806
          0.5901709795 0.074992999434 0.80378699303 0.95089900494 0.30308899283 -0.062675997615
          0.93832701445 0.31814301014 -0.1353790015 0.88893300295 0.30291599035 0.34356999397
          0.92478597164 0.31726101041 0.21004000306 0.93602997065 0.35131800175 -0.020574999973
          0.8468170166 0.27261799574 0.45670598745 0.79619801044 0.24601900578 0.55275899172
          0.90705502033 0.30269598961 -0.2926209867 0.89708298445 0.30785301328 -0.31696799397
          0.9108210206 0.28468099236 -0.29893499613 0.92744898796 0.24922299385 -0.27879500389
          0.89168000221 0.19080600142 -0.41048699617 0.94889700413 0.23337100446 -0.21244299412
          0.91180598736 0.28720799088 -0.29346498847 0.93250501156 0.35997000337 -0.029252000153
          0.88725399971 0.39986601472 -0.22997100651 0.92780697346 0.35890299082 0.10180000216
          0.90497201681 0.37944298983 0.19247800112 0.67247098684 0.23470500112 0.70192301273
          0.70794701576 0.23097500205 0.66742998362 0.70330697298 0.17238900065 0.68966799974
          0.91815900803 0.12624399364 0.37556099892 0.48047798872 0.53771799803 0.69282102585
          0.525636971 0.40404000878 0.74863702059 0.42527100444 0.32285499573 0.84552299976
          0.98466700315 0.10751099885 0.13737499714 0.92375999689 0.26003199816 0.28115901351
          0.37064701319 0.078276999295 0.92546898127 0.30201900005 0.070288002491 0.95070701838
          0.21400399506 0.042339999229 0.97591501474 0.15927200019 0.027701999992 0.98684602976
          0.60523802042 0.19383400679 0.77208501101 0.52073001862 0.20239500701 0.82938301563
          0.42175999284 0.14291700721 0.89537298679 0.35857799649 -0.04660499841 0.93233597279
          0.33277198672 -0.049044001848 0.9417309761 0.90327000618 0.42788699269 0.031881999224
          0.90255600214 0.43024200201 0.016853999346 0.71490097046 0.40107399225 0.57276201248
          0.91541498899 0.2216989994 0.33595499396 0.67289501429 0.52020400763 0.5259270072
          0.55915302038 0.65657097101 0.50622397661 0.81967902184 0.50771898031 0.26523199677
          0.67142397165 0.68129402399 0.29159599543 0.5501049757 0.75356602669 0.35989201069
          0.84851801395 0.50609600544 0.15454499424 0.8732060194 0.48085701466 0.07929699868
          0.87932997942 0.44482499361 0.17002700269 0.83974599838 0.52671802044 0.1318860054
          0.87080001831 0.46110099554 0.17056700587 0.18394500017 -0.0055579999462 0.9829210043
          0.24816800654 0.064768001437 0.96654897928 0.48476999998 0.10053800046 0.86884397268
          0.60197997093 0.14742100239 0.78478401899 0.19116200507 0.086419001222 0.97774702311
          0.32688701153 0.071824997663 0.94233000278 0.25016999245 0.019946999848 0.96799600124
          0.86286097765 0.27717599273 0.42266300321 0.85715401173 0.27836200595 0.43336200714
          0.92729598284 0.31270098686 0.20576800406 0.78466999531 0.24645400047 0.56881797314
          0.64711201191 0.18755500019 0.73896497488 0.50018697977 -0.010177000426 0.8658580184
          0.26278799772 -0.057376999408 0.9631459713 0.32810899615 0.010976999998 0.94457602501
          0.41190698743 -0.042481999844 0.91023498774 0.90665698051 0.32565799356 -0.26817798615
          0.79148000479 0.29504400492 -0.53526598215 0.88407897949 0.29966700077 0.35861501098
          0.92631602287 0.30819201469 0.21669299901 0.93504297733 0.2944329977 0.19749300182
          0.92430001497 0.35499799252 0.14016099274 0.90442699194 0.30622899532 -0.29704499245
          0.8941450119 0.31731200218 -0.31593999267 0.94552701712 0.32537800074 0.010348999873
          0.810593009 0.2669570148 0.52122300863 0.91617500782 0.3049980104 0.25999900699
          0.78515899181 0.27515700459 -0.55480998755 0.7840769887 0.2631970048 -0.56209498644
          0.81778299809 0.23901599646 -0.52354800701 0.71012598276 0.150740996 -0.68774801493
          0.86753201485 0.18015499413 -0.4636079967 0.8960070014 0.24932099879 -0.36743700504
          0.87302398682 0.33703500032 -0.35247299075 0.86424398422 0.45582899451 -0.21284300089
          0.83664500713 0.47161000967 -0.27858400345 0.77931201458 0.45418599248 -0.43172699213
          0.77897101641 0.49856698513 -0.38030898571 0.90501999855 0.12834499776 0.40554401278
          0.46239298582 0.24166800082 0.85310602188 0.97434002161 0.065448999405 0.21535399556
          0.64225298166 0.51435297728 0.56828898191 0.3875760138 0.44412299991 0.80779898167
          0.57072997093 0.47744700313 0.6680650115 0.28426998854 0.32011899352 0.9037219882
          0.15644299984 0.37389498949 0.91418099403 0.28887701035 0.50361001492 0.81420302391
          0.22172600031 -0.013340000063 0.97501802444 0.19557699561 0.042300000787 0.97977602482
          0.3183349967 -0.016638999805 0.94783198833 0.17055299878 -0.10083399713 0.98017597198
          0.37805899978 0.092265002429 0.92117202282 0.25372099876 0.062164999545 0.96527802944
          0.51259297132 0.11106000096 0.85141897202 0.5042129755 0.11688499898 0.8556330204
          0.038373999298 -0.20486700535 0.9780369997 0.021201999858 -0.18299299479 0.98288601637
          -0.0017219999572 -0.15332399309 0.98817402124 0.85009801388 0.48347100616 -0.20878100395
          0.81671702862 0.53249400854 -0.22231499851 0.80907100439 0.57196497917 -0.13513399661
          0.85093998909 0.49249300361 -0.18262700737 0.45802098513 0.64345902205 0.61333298683
          0.34347900748 0.78433001041 0.51657402515 0.42188000679 0.78482401371 0.45394700766
          0.75095498562 0.63312900066 0.1876540035 0.64895999432 0.73323601484 0.20302000642
          0.55444300175 0.80125898123 0.22489400208 0.53481698036 0.82875597477 0.16472800076
          0.41360300779 0.83169698715 0.37042298913 0.79559397697 0.60385298729 0.048907998949
          0.82340198755 0.56691902876 0.024755999446 0.81165099144 0.58258199692 0.042660001665
          0.63828802109 0.7669659853 0.065962001681 -0.023710999638 -0.07015799731 0.99725401402
          0.2181430012 0.00014699999883 0.9759169817 0.17791500688 0.0070489998907 0.98402100801
          0.078054003417 0.041379999369 0.99608999491 0.33508500457 0.047892000526 0.9409700036
          0.53241199255 0.12852199376 0.83667200804 0.21312199533 0.035379998386 0.97638499737
          -0.0055329999886 0.032501000911 0.99945598841 -0.044229000807 0.051330000162 0.99770200253
          0.31896701455 0.050542000681 0.94641697407 0.83140301704 0.26910099387 0.48616200686
          0.83543002605 0.28908899426 0.46742400527 0.86677902937 0.29901498556 0.39910399914
          0.73405498266 0.2338359952 0.63756102324 0.63195198774 0.20139999688 0.74838101864
          0.51474201679 0.1279810071 0.84773898125 0.57992702723 0.15301500261 0.80016899109
          0.2752969861 -0.12078999728 0.953741014 0.18388900161 -0.019850000739 0.98274701834
          0.097629003227 -0.10998500139 0.9891269803 0.81671899557 0.30306300521 -0.49104198813
          0.6614009738 0.28962498903 -0.69185698032 0.56554597616 0.24561500549 -0.78729301691
          0.64371502399 0.20953899622 -0.73602002859 0.92679297924 0.29094201326 0.23750400543
          0.89075601101 0.28267401457 0.35587799549 0.94570797682 0.28708600998 0.1523720026
          0.76116299629 0.2889289856 -0.58064699173 0.77910798788 0.28779301047 -0.55692601204
          0.90556198359 0.29310899973 -0.30666598678 0.9512130022 0.27992200851 -0.12976400554
          0.95977300406 0.2807289958 0.0052539999597 0.75237500668 0.22730900347 -0.61827301979
          0.6649479866 0.1331499964 -0.73492497206 0.54853200912 0.11496800184 -0.82818800211
          0.65016001463 0.061616998166 -0.7572939992 0.81069099903 0.14353699982 -0.56760597229
          0.82057201862 0.29601898789 -0.48891198635 0.81320399046 0.48194301128 -0.32623699307
          0.70703798532 0.54916197062 -0.44555398822 0.64384198189 0.57018399239 -0.5102519989
          0.67328101397 0.41023498774 -0.6151419878 0.62105602026 0.56058502197 -0.5477539897
          0.26487600803 0.21864099801 0.93916797638 0.23401199281 0.30036398768 0.92467302084
          0.39532101154 0.56530898809 0.72398102283 0.29459199309 0.58019000292 0.75933897495
          -0.013028999791 0.34094399214 0.93999397755 -0.071956001222 0.35758700967 0.9311029911
          0.17973800004 0.42807298899 0.88568997383 0.34076300263 0.60251301527 0.72170597315
          0.22968399525 0.65403300524 0.72075402737 0.033714000136 -0.063897997141 0.99738699198
          -0.024837000296 -0.18493300676 0.98243701458 0.24295200408 -0.044406000525 0.96902102232
          -0.098785996437 -0.27427101135 0.95656502247 0.11712300032 -0.11590799689 0.98632997274
          0.35273298621 0.076889999211 0.93256002665 0.34602600336 0.09367299825 0.93353700638
          0.57323300838 0.116723001 0.81103599072 0.97823500633 0.013566999696 0.20705699921
          0.89144200087 0.0461059995 0.4507830143 0.89309698343 0.026860000566 0.44906100631
          0.32344898582 0.11649599671 0.93904697895 -0.18917100132 -0.31204798818 0.93104302883
          -0.12092299759 -0.27185899019 0.95471000671 -0.18592900038 -0.18480299413 0.96502798796
          -0.24550400674 -0.27156800032 0.93058001995 -0.26424598694 -0.22868700325 0.93695098162
          -0.19988100231 -0.28645199537 0.93701297045 0.77657800913 0.53747099638 -0.32871299982
          0.92983299494 0.31760498881 -0.18584400415 0.82540798187 0.5085260272 -0.24515900016
          0.64195299149 0.64922702312 -0.40792301297 0.68463999033 0.64193898439 -0.34522798657
          0.74762201309 0.65626001358 -0.10190500319 0.2716409862 0.73320001364 0.62340098619
          0.24960899353 0.83108597994 0.49698200822 0.23660199344 0.89316797256 0.38245299459
          0.37781101465 0.86666202545 0.32581499219 0.56877398491 0.81025999784 0.14133000374
          0.85308301449 0.51757597923 0.066063001752 0.91398400068 0.40052101016 0.064937002957
          0.44549000263 0.87310802937 0.19804500043 0.69526702166 0.71705102921 -0.049412999302
          0.51457601786 0.85740500689 0.0082890000194 0.47932198644 0.87401902676 0.079630002379
          0.63338297606 0.76413297653 0.12217500061 -0.1967419982 -0.043761000037 0.97947800159
          -0.31837099791 -0.13031600416 0.93896597624 -0.4123339951 -0.11475799978 0.90377599001
          -0.35308900476 -0.18429400027 0.91725897789 0.4950709939 0.082332000136 0.8649430275
          0.44906398654 0.065583996475 0.89108902216 0.16454100609 -0.035567998886 0.98572897911
          0.26541000605 -0.0061920001172 0.96411597729 0.077532999218 -0.015197999775 0.9968739748
          -0.1292449981 -0.044879000634 0.99059700966 -0.27568501234 -0.037262000144 0.96052598953
          0.89453500509 0.31869998574 0.31342899799 0.88788300753 0.2868449986 0.35969901085
          0.77763599157 0.24427199364 0.5793210268 0.91139298677 0.32216000557 0.25607898831
          0.67469400167 0.2014939934 0.71006202698 0.6625289917 0.16387200356 0.7308909893
          0.35201200843 0.051284998655 0.93458902836 0.31305798888 0.050657000393 0.94838202
          0.58407497406 0.11339099705 0.80374002457 0.40187099576 0.11130200326 0.90890699625
          0.36719599366 0.10522300005 0.92417299747 0.5969799757 0.27905699611 -0.75215899944
          0.54087901115 0.19707299769 -0.817686975 0.40259099007 0.18876099586 -0.89570599794
          0.47741100192 0.21218399704 -0.85267597437 0.67549198866 0.16533799469 -0.71859198809
          0.93948799372 0.28920999169 0.18362799287 0.6662709713 0.30017501116 -0.68262600899
          0.92663502693 0.30516698956 -0.21959100664 0.82586199045 0.30597400665 -0.47363600135
          0.94701200724 0.32113000751 0.0066120000556 0.94946998358 0.30762800574 -0.062224000692
          0.87326300144 0.077671997249 -0.4810180068 0.97159898281 0.045076999813 -0.23230099678
          0.52132999897 0.042263001204 -0.85230797529 0.51195698977 0.12248600274 -0.85023397207
          0.48768699169 -0.021166000515 -0.8727620244 0.56978702545 -0.039156999439 -0.82085901499
          0.72427201271 0.043145999312 -0.68816399574 0.74500399828 5.8000001445e-005 -0.66705900431
          0.75339400768 0.090456999838 -0.65131801367 0.72910499573 0.27088901401 -0.6285110116
          0.64201301336 0.61995202303 -0.45108699799 0.90661197901 0.3565480113 -0.22567300498
          0.5425260067 0.60976499319 -0.57779997587 0.5826690197 0.59564399719 -0.55290597677
          0.58760398626 0.13394099474 -0.79798597097 0.60710000992 0.45485600829 -0.65156400204
          0.60133200884 0.5518220067 -0.57783401012 0.40756601095 0.13591900468 0.90300399065
          -0.10185799748 0.28441101313 0.95327597857 -0.0078790001571 0.21308100224 0.97700297832
          -0.24129000306 0.32175898552 0.9155600071 -0.23497599363 0.30674499273 0.92233002186
          -0.023451000452 0.41916799545 0.90760600567 -0.33510398865 0.38177099824 0.86136901379
          0.15376900136 0.50996601582 0.84633898735 0.012086000293 0.72978001833 0.68357497454
          -0.0022400000598 0.58693802357 0.80962902308 0.078561000526 0.81454402208 0.57475697994
          -0.24502700567 -0.3898639977 0.88767498732 0.10263799876 0.0077320002019 0.99468898773
          -0.24504199624 -0.37655800581 0.89339697361 -0.23603500426 -0.40797498822 0.8819540143
          -0.10533799976 -0.17141200602 0.97955197096 -0.23658500612 -0.30467700958 0.92260497808
          0.086943998933 -0.076874002814 0.99324297905 0.069164000452 0.0070859999396 0.99757999182
          0.12853200734 0.063161000609 0.98969197273 0.30197799206 0.087903998792 0.94925397635
          0.89666801691 0.068743996322 0.43733298779 -0.32662799954 -0.31894001365 0.88971400261
          -0.40408098698 -0.2647280097 0.87557798624 -0.39431101084 -0.31699600816 0.86257302761
          -0.29774600267 -0.40320900083 0.86531502008 0.9408749938 0.27806800604 -0.19347600639
          0.67940598726 0.58267802 -0.44597500563 0.5770329833 0.65199500322 -0.4918679893
          0.69529497623 0.55838400126 -0.4525179863 0.77605801821 0.54847699404 -0.31129801273
          0.63118898869 0.75700098276 -0.16896900535 0.68752402067 0.70354402065 -0.17982499301
          0.56417101622 0.79785901308 0.21244600415 0.27531701326 0.94840401411 0.15725700557
          0.2474039942 0.94929397106 0.19399100542 0.32443100214 0.90693199635 0.26873600483
          0.061464000493 0.86080998182 0.50520098209 -0.035627000034 0.88047999144 0.47274199128
          0.16498799622 0.89669698477 0.41074699163 0.86306798458 0.49694499373 0.09033100307
          0.52082198858 0.84986901283 -0.080421000719 0.44317299128 0.89600402117 0.027813000605
          0.35384601355 0.92961400747 -0.10300499946 0.43285998702 0.90146100521 5.7000001107e-005
          0.43590900302 0.89016997814 0.13258999586 -0.53840500116 -0.13798199594 0.83131301403
          -0.48675400019 -0.17437699437 0.85595697165 -0.64740502834 -0.19050300121 0.73795300722
          -0.569190979 -0.25177401304 0.78270798922 0.077866002917 -0.06656999886 0.99473899603
          -0.10178299993 -0.088432997465 0.99086797237 -0.02121799998 -0.065018996596 0.9976580143
          0.1629229933 0.018995000049 0.98645597696 0.017702000216 -0.10876499861 0.99391001463
          -0.32122799754 -0.12174800038 0.93914300203 0.93116700649 0.31173300743 0.18907999992
          0.87216699123 0.27231100202 0.4064129889 0.9080439806 0.2936539948 0.29870399833
          0.82056802511 0.25572699308 0.51114702225 0.69959998131 0.22609099746 0.67782199383
          0.76646798849 0.23182600737 0.59898602962 0.9436699748 0.30951300263 0.11700099707
          0.90961402655 0.29996201396 0.28744500875 0.58919101954 0.19532899559 0.78402900696
          0.65337097645 0.22683399916 0.72225499153 0.25169798732 0.051178999245 0.96645200253
          0.059781000018 -0.038780000061 0.99745798111 0.35240501165 0.046130001545 0.93471002579
          0.20637199283 0.051518000662 0.97711598873 0.39688500762 0.09174399823 0.9132720232
          0.24790300429 0.0347439982 0.96816200018 0.51300102472 0.25471499562 -0.8197259903
          0.4275200069 0.15431399643 -0.89073801041 0.51899498701 0.18563599885 -0.83437597752
          0.54407501221 0.19662800431 -0.81567102671 0.79835402966 0.097442999482 -0.59425199032
          0.41929399967 0.14351700246 -0.89643502235 0.38555699587 0.16113899648 -0.90850400925
          0.40551099181 0.21529500186 -0.88837397099 0.32420200109 0.16163599491 -0.9320769906
          0.46230998635 0.119080998 -0.87868601084 0.87816798687 0.11214599758 -0.46502000093
          0.6860139966 0.28449198604 -0.66966301203 0.49854299426 0.25297299027 -0.82913202047
          0.90245300531 0.30062198639 -0.30855199695 0.93983697891 0.31731399894 -0.12655900419
          0.84995597601 0.30610498786 -0.42880699039 0.79193300009 0.29853698611 -0.53265100718
          0.94745498896 0.31641200185 -0.047033000737 0.66727900505 0.15683199465 -0.72810900211
          0.43641000986 0.09261199832 -0.89496898651 0.3381640017 -0.0034209999721 -0.94108098745
          0.30228298903 -0.097363002598 -0.94823300838 0.43190899491 -0.18153500557 -0.88345897198
          0.63769698143 -0.085182003677 -0.76556301117 0.6668419838 -0.10386300087 -0.73792600632
          0.64345401525 -0.089992001653 -0.76017600298 0.60320997238 -0.069390997291 -0.79455798864
          0.56788700819 0.65862500668 -0.49367600679 0.61021798849 0.55801302195 -0.56236499548
          0.50313800573 0.62605398893 -0.59574198723 0.69017499685 0.52678102255 -0.49614500999
          0.71316498518 0.56421899796 -0.41599500179 0.74496799707 0.54714000225 -0.3816550076
          0.49409800768 -0.15176600218 -0.85605800152 0.45944499969 0.060695998371 -0.88612997532
          0.40069299936 -0.05157700181 -0.91475898027 0.46588599682 -0.062638998032 -0.88262498379
          0.46071699262 0.23174199462 -0.85675901175 0.52597302198 0.3945980072 -0.75342202187
          0.50770401955 0.51198202372 -0.69290101528 0.65498197079 0.49898299575 -0.56746399403
          0.0013660000404 0.10376899689 0.99460101128 -0.23075099289 0.12845799327 0.9644960165
          -0.20669400692 0.16886200011 0.96372401714 -0.21045100689 0.30163699389 0.92990601063
          -0.25703001022 0.34559899569 0.90249502659 -0.24558499455 0.35311201215 0.90277302265
          -0.12787300348 0.41851601005 0.89916199446 -0.28950899839 0.52367597818 0.80121600628
          -0.49699699879 0.50032997131 0.70898801088 -0.3286370039 0.51427400112 0.79216200113
          -0.26139700413 0.47459501028 0.84049397707 -0.23658899963 0.70692700148 0.6665430069
          -0.21467900276 0.75241202116 0.62272697687 -0.22303000093 0.80165499449 0.55462402105
          -0.22608299553 -0.46134099364 0.85793399811 -0.11586300284 0.07576200366 0.99037200212
          -0.19953200221 -0.4121620059 0.8889939785 -0.2717410028 -0.344502002 0.89859598875
          -0.2756190002 -0.38161998987 0.88226997852 -0.10246499628 -0.023871000856 0.99444997311
          -0.25335898995 -0.10483299941 0.96167498827 -0.3096550107 -0.36865600944 0.87647402287
          -0.55019497871 -0.35872399807 0.75405800343 -0.42730200291 -0.41837599874 0.80148202181
          -0.17491699755 -0.43094301224 0.88526397943 0.69318801165 0.53715598583 -0.48057600856
          0.70597398281 0.56150698662 -0.4316380024 0.66369998455 0.61831098795 -0.42094400525
          0.6742759943 0.65905499458 -0.33316498995 0.74968701601 0.51809900999 -0.41175699234
          0.66340601444 0.71701800823 -0.21395599842 0.47856599092 0.85571599007 -0.19678799808
          0.27797499299 0.95712798834 0.081460997462 0.33082398772 0.9312390089 0.1528069973
          0.33159101009 0.94099599123 0.067631997168 0.42444801331 0.90543800592 -0.0050949999131
          0.27903801203 0.95902401209 -0.049107000232 0.12879399955 0.98817402124 0.083217002451
          0.11312700063 0.99122399092 -0.068397000432 -0.21560700238 0.82493799925 0.52248597145
          0.0058909999207 0.88409298658 0.4672729969 -0.022659000009 0.93740999699 0.34748899937
          0.018084000796 0.97987097502 0.198811993 0.20924000442 0.91742300987 -0.33845800161
          0.14315199852 0.96440601349 -0.22232699394 0.20424899459 0.97610098124 -0.074225999415
          -0.62796598673 -0.21433100104 0.74814498425 -0.72110801935 -0.2365719974 0.65118098259
          -0.72146600485 -0.1916680038 0.66539502144 -0.68701797724 -0.26405999064 0.67696297169
          -0.61961001158 -0.29611098766 0.72691202164 -0.12987500429 -0.11567100137 0.9847599864
          -0.37628901005 -0.17858199775 0.90912902355 -0.21988999844 -0.1364119947 0.96593999863
          -0.0053949998692 -0.022106999531 0.99974101782 0.11457999796 0.00028800001019 0.99341398478
          0.18220999837 0.025813000277 0.9829210043 -0.3369410038 -0.18143899739 0.92387801409
          0.92159098387 0.3204100132 0.21910600364 0.93898898363 0.31185999513 0.14506399632
          0.89916801453 0.27819800377 0.33779200912 0.8918799758 0.27134698629 0.36182901263
          0.81495398283 0.23785999417 0.52846300602 0.72341299057 0.21000699699 0.65770101547
          0.60815501213 0.20777000487 0.76614499092 0.5396900177 0.18833899498 0.82052600384
          0.13612399995 0.0023250000086 0.99068897963 -0.085524000227 -0.027155000716 0.99596601725
          -0.34359800816 -0.15881699324 0.92558997869 -0.083187997341 -0.12357600033 0.9888420105
          0.39945599437 0.092738002539 0.91205000877 0.2928070128 0.097810998559 0.95115602016
          0.23403500021 0.041599001735 0.97133797407 0.45614901185 0.13087899983 0.88022702932
          0.011675000191 -0.0063439998776 0.99991202354 0.22517700493 0.072971001267 0.97158098221
          0.35356199741 0.097115002573 0.9303560257 0.12086000293 -0.018502000719 0.99249702692
          0.13308000565 0.013224000111 0.99101698399 0.3366239965 0.093923002481 -0.93694299459
          0.89306199551 0.080282002687 -0.44271400571 0.87124401331 0.067373000085 -0.48620501161
          0.23937700689 0.14237700403 -0.96043097973 0.18570500612 0.10077700019 -0.97742402554
          0.22702099383 0.065310001373 -0.97169697285 0.2501809895 0.20049899817 -0.94721102715
          0.22778199613 0.14918500185 -0.96221601963 0.24311700463 0.12181600183 -0.96231800318
          0.37707200646 0.1280259937 -0.91729301214 0.22267100215 0.13132600486 -0.96600800753
          0.50301897526 0.26848199964 -0.82151597738 0.93380600214 0.31387099624 -0.17172899842
          0.7854809761 0.30166500807 -0.54038697481 0.91255497932 0.31320300698 -0.26295700669
          0.64758300781 0.28228700161 -0.70777797699 0.944675982 0.32076498866 -0.068540997803
          0.30753099918 -0.031353998929 -0.95102101564 0.25676399469 -0.035514999181 -0.96582198143
          0.26363199949 0.043265998363 -0.96365302801 0.17001199722 -0.12827000022 -0.97705799341
          0.14443099499 -0.19821000099 -0.96946001053 0.22919599712 -0.2090280056 -0.95067197084
          0.33343300223 -0.26519098878 -0.90470802784 0.38135999441 -0.28695499897 -0.87876099348
          0.49070501328 -0.2654120028 -0.82991802692 0.51338398457 -0.20709599555 -0.83279502392
          0.79778397083 0.45488199592 -0.39575698972 0.71419000626 0.49472698569 -0.49515300989
          0.4038310051 -0.3572640121 -0.84218901396 0.41141301394 -0.23365099728 -0.88099199533
          0.36388099194 0.18863800168 -0.9121440053 0.24688500166 -0.13774199784 -0.95920497179
          0.25597500801 0.060837000608 -0.96476697922 0.40961399674 0.37588301301 -0.83122098446
          0.33553099632 0.43296200037 -0.83663797379 0.36656799912 0.50170898438 -0.78352797031
          0.51904702187 0.49755299091 -0.69500398636 0.53099697828 0.54064100981 -0.65249401331
          0.56224399805 0.47741600871 -0.67524498701 -0.26183098555 -0.0032560001127 0.96510797739
          -0.18413700163 0.29447498918 0.93775099516 -0.11062899977 0.15309000015 0.98199999332
          -0.12503099442 0.29851698875 0.94617897272 0.0015020000283 0.38924700022 0.9211320281
          -0.21451300383 0.69985502958 0.68131297827 -0.35638800263 0.51034998894 0.78264302015